   1.25394046820971     
 -2.003509367193359E-005
 -2.791159542427575E-005
  0.103062501767969     
 -1.063339589325559E-002
 -3.126754192920398E-005
  3.285729831153080E-005
 -3.689941485729564E-002
 -2.719106742430479E-003
 -8.100458729800850E-006
 -2.613390348891515E-002
  5.464990848278806E-006
 -2.735066800132062E-002
  1.451902128978205E-005
  5.174447589577167E-003
 -1.256202437949201E-005
 -1.671408495430316E-003
 -8.391418998165735E-007
  1.686899451808923E-003
  1.786139107638179E-005
 -3.949309537748134E-003
 -1.054248510191854E-005
  4.047705534283293E-003
 -1.285559764589785E-005
 -1.026600693849736E-002
  4.639102340091408E-006
  9.249342743689331E-004
 -2.872152471820537E-006
 -3.079759211170056E-003
 -8.672651263266334E-006
  1.620358623028509E-002
  1.386352201820739E-006
  5.104145477033760E-002
  4.454878401570027E-006
 -6.235116143457576E-003
  2.599924150387788E-006
  6.918002328994619E-004
 -7.931152624889841E-006
 -4.503628084273906E-003
 -3.347884218720961E-006
  7.131249946930751E-003
 -6.970518501752315E-006
 -1.029167059440367E-002
  1.608809703673971E-006
  1.412574389503859E-009
  8.794796099892667E-008
  2.514390300774867E-008
 -1.715342807416272E-008
  4.033945106038719E-006
 -3.099278618501375E-002
  1.336791538820280E-007
  8.759822058509253E-003
 -1.828258943449421E-006
 -1.537209453154705E-006
  2.534725833235435E-008
 -8.371936149406090E-003
 -5.108204286548389E-002
  9.730328431007091E-007
  1.328774768622324E-007
 -1.987043325470089E-006
 -1.466473415992715E-002
 -5.349986171873383E-004
  9.060500165722017E-007
  1.735260977764231E-006
 -1.008655746442125E-004
  5.502393149107091E-008
  9.058552138810627E-003
 -2.900261885584546E-006
 -1.240953744867602E-007
  1.572177204081464E-007
 -3.613398556910649E-003
  1.319195655300666E-006
 -1.039103072128267E-002
  5.400037987734067E-007
 -2.642493761336426E-006
  1.008992717758989E-007
  1.430529569946289E-003
 -6.027348266967918E-003
  5.494844405252794E-007
  1.179177495853078E-003
 -1.779821103669438E-006
  5.470046839505755E-003
 -1.481301139075264E-006
  3.481680045106706E-008
 -8.131714623375651E-007
  1.879310278049814E-002
  7.901976042913145E-008
  3.032303050801620E-006
  0.137369925889631     
 -1.475657145312057E-006
 -1.379748870633238E-008
 -0.171838734588275     
 -3.648083489299041E-006
 -8.227508859925825E-002
  2.122973138860964E-006
  4.397293932562970E-006
  8.020474652475815E-002
  2.746432154760870E-002
 -7.184478847904698E-007
  0.122182448575322     
 -2.761663700329073E-006
  4.037698248009945E-008
 -5.236771791955067E-002
 -6.764388927842103E-002
 -1.122989261913257E-006
  2.563672768126662E-008
 -9.878694795758683E-004
  1.096427427174013E-007
  1.462703954362668E-006
 -1.897606750730835E-003
  8.609707827619596E-003
 -1.911102415436400E-006
 -6.929554884700388E-003
 -2.495106606065955E-002
 -4.892096211348397E-006
 -4.876336163704432E-006
 -6.111284262849747E-002
  3.450971779847368E-008
 -8.616478114513868E-008
  1.745856864898015E-008
  1.358112183204004E-004
  1.689645482153098E-002
  8.598251881145127E-008
  1.537908311511821E-003
  5.607306694064128E-007
 -1.204035127381265E-006
  1.020146345050228E-002
  5.617271276147699E-003
 -4.878873262895453E-007
  1.178083108034131E-003
  2.930871966657560E-007
  1.667682815352535E-007
  6.344655027554344E-004
 -7.334471013304683E-007
 -7.298887069278250E-003
 -7.075972090078555E-007
  5.322363574028254E-002
 -8.891543479714871E-007
  3.343807834622482E-002
  8.518578874566104E-007
  6.241845916435666E-003
  4.502667167019116E-007
 -1.449305846189944E-003
  6.872055804806188E-008
  1.037808905121337E-008
 -1.040823494724187E-008
  4.463503160620574E-009
 -1.336441911472512E-008
 -7.718421617753780E-007
  1.567589358502370E-004
  1.386358934855884E-006
  3.207039560559640E-004
 -3.069278731540436E-006
 -6.546862858154325E-004
  2.276542836106274E-006
  4.324748946081211E-004
 -4.740462476242405E-007
 -1.818106812001922E-004
 -2.064388359977964E-006
 -1.075317943048997E-004
  3.282646882735558E-008
 -1.488143304721452E-006
 -3.586810768669661E-003
  4.063708223039361E-006
  3.149638647543611E-003
 -1.446571970556806E-006
 -3.947947457640613E-005
  9.574408596195117E-007
  2.793734656950103E-008
 -5.868569940818580E-005
  2.840716270562442E-008
  1.258623562652450E-008
 -3.234985924868972E-008
 -2.366153767966397E-008
 -1.570348539826445E-006
  1.441821935297136E-008
  1.979446125385215E-003
  1.035267866141790E-007
  6.174550839366995E-007
 -3.065795491316037E-005
  2.946196790278769E-008
 -7.346717758281356E-007
 -1.595611596894812E-003
 -7.680321858402399E-007
 -4.564851414246498E-003
  3.662452369259194E-003
  1.932012669694457E-007
  1.709028704224294E-004
 -2.834505400258832E-008
 -2.481808811613883E-006
 -1.826379228709537E-006
  4.454274831968381E-004
  4.922952788722979E-009
 -7.991481566416729E-003
 -2.426263497147013E-007
 -6.504933389850274E-008
 -2.842502748970565E-006
 -3.892657279874437E-003
  4.296333737941285E-008
  4.048586546496513E-008
  6.200442722664198E-007
  1.529224778120948E-002
  3.575989336565197E-008
  4.712118386056145E-008
 -3.610492596726851E-002
  1.370303147782425E-006
 -3.504364244151758E-007
  4.786428052416550E-003
 -1.374100395957984E-002
 -1.354773388511279E-006
 -8.427202085773637E-007
  1.133891955597961E-003
  4.105191278952626E-004
 -8.090949946731147E-007
  4.490732266356686E-007
  2.267064409966862E-005
  1.487602634272756E-003
 -2.107837652625152E-006
 -2.056394317349248E-003
  2.313283791998829E-006
 -1.469041462624202E-003
 -2.822694423340142E-007
 -7.049008241950141E-007
 -1.014173274457614E-003
 -2.003509367344375E-005
   1.24301107468764     
 -0.110539330524663     
  1.962933741743044E-005
  2.264648248945401E-005
  8.608604958610822E-003
 -2.604609535944548E-002
  1.342073964384548E-005
 -5.510070145733874E-006
 -6.564586578034860E-003
  7.602433199515401E-006
  7.970425503483633E-003
 -1.664843084811770E-005
 -1.179258292175623E-002
  1.594783049127121E-005
  9.611137806843906E-003
 -9.532920956162007E-006
 -8.247167812843067E-003
  6.433964640662248E-007
 -5.019059932989863E-003
  1.309549078332552E-005
 -1.672429408516321E-003
 -3.158822888994615E-006
 -4.309438329681668E-003
 -6.664645476569112E-006
  4.807426984197558E-003
  2.487555634184994E-006
  2.993402861370369E-003
 -2.772032329245266E-006
  2.932587689089672E-003
  3.877776722800779E-006
  4.309897019729101E-002
  7.593971838943635E-006
 -1.776100303273944E-002
 -2.833364696409305E-005
  2.552419186945932E-002
  4.927686785478461E-006
  4.184933164699875E-003
 -7.034462916372667E-006
  3.613473605003721E-003
 -4.620013996379883E-006
 -6.286866821095247E-003
 -6.727804857320396E-006
  6.886072678729738E-003
  1.929803602777661E-007
 -1.967900091383838E-008
  1.470379370215875E-007
  1.650175322368273E-008
 -8.343635331761821E-005
  2.226508551718823E-006
  8.169560163002718E-008
 -3.717077482565808E-006
 -3.442763108966579E-003
 -4.986051115682618E-002
 -1.291813854283331E-007
 -5.141387324006236E-007
 -2.103152576453797E-007
  1.943952098580236E-002
  2.342680997474182E-008
 -2.791962889161443E-002
 -4.361536347484980E-007
  7.854791470601896E-007
 -2.743577220006164E-003
 -9.867200425068598E-004
 -8.626371871264617E-008
 -1.405873725993069E-007
  1.685865070231980E-006
  2.365883414732122E-003
  3.538444044935788E-008
 -3.316301237610618E-008
 -2.509652843781172E-006
 -1.726672647084218E-002
 -1.368696634171942E-006
 -2.442321457186449E-002
  1.242776084853967E-002
 -1.012743230200528E-007
  2.135210899805124E-006
  3.769011495408250E-007
  1.401016610383638E-002
 -1.321549196508767E-007
  1.373263430005565E-002
 -3.345902450030180E-007
 -1.344126273974970E-002
 -2.826850473080225E-008
  3.877956323537669E-002
  1.424054743030379E-006
 -9.018536768647522E-008
 -0.152594266946927     
  4.333590442258213E-006
  0.104621982231223     
  2.619835898444875E-008
 -5.796074540793439E-006
 -4.330368224661332E-002
  4.888632848405752E-007
 -0.114211549712722     
 -0.112772585188703     
  1.276994754292339E-006
  2.689505887655363E-006
 -6.019434439489732E-002
  2.374853667397383E-006
  0.137450115880067     
 -4.025755241415599E-008
  1.864137977306890E-006
 -3.017311695615926E-006
  2.445697857474230E-002
  3.797710966068632E-003
  1.249024699182506E-006
 -1.998609663375003E-008
  3.559524511358296E-003
 -4.198164281331860E-007
  1.217904504889055E-006
  4.032606980394942E-003
 -2.171579905249733E-006
 -3.566831981734553E-006
  3.427914647905012E-002
  5.301958274146300E-002
 -4.731001730493298E-006
 -1.510506056502411E-008
 -4.577291299065979E-009
  1.855446682838653E-008
  9.051772413427360E-003
 -7.217225391952154E-005
  1.222656799128133E-007
 -1.471423010116220E-006
 -2.422553705785345E-003
  3.090233661663032E-003
  5.650305929385566E-007
 -2.349854705672320E-007
  9.388350218720639E-003
 -1.395059931890374E-006
  3.948029141039678E-004
 -3.113968518199183E-003
  3.376701903322274E-007
  1.059822523119528E-003
  1.355831049187973E-006
 -2.888194624352261E-002
  7.103920936663560E-007
  5.273333856286819E-002
  1.703318163691368E-006
 -9.986662568494479E-003
 -2.135583149055943E-006
  5.081236770262245E-003
 -2.828192738123599E-006
 -3.567415101925790E-008
  5.558469972445337E-008
  1.507670026556020E-008
 -8.824383799178959E-009
 -2.477935251027546E-008
  1.591046974484240E-004
 -1.746106100307690E-006
 -4.831566309738660E-004
  4.176850478553596E-007
 -1.118923593704336E-003
  1.200214943942098E-006
 -1.750886012808699E-004
  3.546992237145523E-006
  3.694785202062967E-004
  4.561933874465373E-008
  2.242040761795162E-004
 -1.615244143241073E-006
 -1.833512016203292E-008
 -1.623872320271530E-003
 -3.261956459179980E-006
  4.464350093054789E-003
  2.208096473061550E-006
 -8.365490458206178E-004
  5.760258003471118E-007
 -3.004211004560365E-005
  3.140586717725711E-008
  1.189483668517469E-007
  3.708734070652741E-008
  2.624931710078270E-008
  7.361196807717105E-008
 -1.011413150349646E-008
 -2.598140296809418E-004
 -3.684728422460731E-008
 -6.424295286262754E-008
  1.423209130930755E-003
 -6.505692643287601E-006
  6.137372111975368E-007
 -3.600515673782512E-009
  1.692111128989790E-004
 -4.328204194023489E-007
  9.015115016766001E-006
  3.074529909728206E-007
 -1.156433003721425E-007
 -8.642081574158421E-004
  5.000291540246711E-007
  3.504488195697684E-008
  1.202360278857808E-002
  4.872333141585312E-003
  1.152018365162039E-007
 -1.398980995480912E-008
  1.200701002247263E-006
 -4.150291409670540E-003
  6.608571479740346E-008
 -5.878824814555107E-003
  8.918861022519710E-008
 -6.768142158940543E-010
 -5.463232464516740E-008
 -2.882225220455053E-002
  2.327937629800632E-006
  7.335219699784606E-009
  2.987756598381574E-008
  1.436886501624956E-007
  2.240257415898832E-003
  2.968515349418024E-002
  8.382466665899867E-007
  1.828633953533991E-006
  5.021114678668272E-003
 -1.331962135139424E-003
 -3.721523106192321E-007
 -1.460632115468503E-006
 -7.881030746457981E-005
 -1.139437106441406E-003
 -7.005422728675491E-007
 -1.110501473539906E-006
  8.847460993707957E-004
  1.773176628731654E-007
 -2.228675564187467E-004
  9.923050668619094E-007
 -9.432620852197139E-004
 -1.191248433059192E-003
  7.720732453618835E-007
 -2.791159542578088E-005
 -0.110539330524663     
   1.21057738233604     
  9.436035944024483E-006
  1.600308311710653E-005
 -0.144665843160971     
 -2.988232338352250E-002
 -1.363108230449007E-005
  7.446282226485356E-006
  6.302024412354265E-002
  6.733410903771589E-006
  4.886432210123570E-002
 -1.030654689483907E-005
  2.729118836811830E-002
 -4.910358065985912E-006
 -7.140639970356859E-003
  1.135694146034384E-005
 -1.841029177302143E-003
 -5.027552972421318E-006
 -4.650626759511584E-003
  9.471137685322954E-006
 -7.851010341939781E-003
 -5.201770812714919E-006
  1.623466839374159E-002
  2.710049861354469E-006
  5.542687432096247E-003
  2.339863208826901E-006
  3.510179609211265E-003
  1.247656318973782E-005
  1.747135231928874E-002
 -7.462696541889038E-006
  4.331191149129225E-002
 -1.131714242379721E-006
 -3.157014943743446E-003
 -1.002414117672218E-005
 -1.234369078684238E-002
 -2.116474777379349E-006
 -1.840771591453408E-002
 -7.953743898239879E-006
 -9.541066409866879E-003
 -4.160982121125959E-006
  1.844569723294841E-002
  6.377463152771436E-006
 -3.746513091023922E-002
 -6.453422439607166E-008
  7.344344535760727E-009
  4.952589569952455E-008
 -8.747182460114767E-008
 -1.144528208846352E-003
 -2.727915457930864E-006
  9.381073600654669E-009
 -3.839439401055549E-006
  5.706156749055905E-003
  2.932717868006537E-002
 -4.970169178769949E-009
  9.401023397362419E-007
 -1.838324382102481E-006
 -9.950617182420846E-003
  2.050778095255833E-008
 -1.339748977815517E-002
  8.231540586552783E-007
  4.962075993649783E-007
  9.334880696274930E-003
 -1.324115578123738E-002
  3.778687777973403E-007
 -1.096016404060417E-009
  2.703692101404132E-006
 -1.861165831105812E-002
 -1.134557396374823E-007
  3.295630178650106E-008
 -2.058496496788334E-007
  1.540096712624280E-002
 -2.602832600071078E-006
  1.231996214192584E-003
 -3.155200007546318E-003
 -8.446395948923231E-008
 -1.485851584024111E-006
  1.739321085084682E-011
  1.108113563224814E-003
  2.630012983793379E-007
 -5.869037944433717E-003
 -7.308859855862655E-007
  7.770413738668448E-003
  2.536384006226319E-008
 -2.946145819645386E-002
  3.762117050118754E-007
 -2.676379310323918E-008
 -0.237221902632293     
  1.907311788280818E-007
  7.111842710398363E-002
 -3.466415714842647E-008
 -1.091872342921032E-006
  1.587994416549978E-002
 -2.939967619201496E-006
  9.549743274475592E-002
  2.035121184675352E-002
 -5.639924626292547E-007
 -3.370996864285016E-006
  0.103189903408239     
  5.881492013445962E-007
 -1.402703773919628E-002
  8.438648456626893E-008
  4.358194333021431E-007
 -1.725860581540683E-007
 -6.382195745271207E-002
  1.356789084670979E-002
 -1.721286641150983E-006
 -2.655815995580491E-009
  1.342853076972524E-002
 -7.357397105484794E-007
  1.083375617316273E-006
  3.888781658646308E-002
 -1.659866129865957E-005
 -3.397488418397116E-006
  2.928687580276958E-002
 -7.853024268857324E-002
  5.202477523467938E-007
 -6.694938514269848E-009
 -1.136832378906329E-008
  9.625665074742499E-009
 -2.476549173596123E-002
  1.993691313931537E-004
  2.197854977429822E-008
  1.160299272815890E-006
 -4.430746798188437E-003
  5.315966664688856E-003
  1.207725170809439E-006
 -1.580818148703159E-007
 -1.226186247833570E-002
  1.501510383352767E-008
 -3.050230024574774E-003
 -6.217748901384267E-003
 -6.017529173259317E-007
  2.388198137357896E-003
  1.113830504498925E-006
 -2.904853212260497E-002
  1.058865987094304E-006
 -4.217020782203947E-002
  7.720328716298800E-007
  4.942177762768470E-002
 -7.931731394601656E-008
 -8.260021150761979E-003
  2.336214671074316E-007
  9.050017619106448E-009
  4.641334173462994E-008
  1.891588412043559E-008
 -2.138593491885962E-008
  2.748363158497401E-008
  1.324491635957527E-004
 -1.872789080569700E-006
 -4.175982111548391E-004
  9.186989442586243E-007
  5.843505625069355E-004
  4.791878544885359E-006
 -3.593232515148724E-004
  2.127892842398355E-006
  6.109840591642366E-004
  2.185012622275918E-006
  2.765385692343380E-004
 -3.289948602976629E-007
  1.524176811914724E-008
 -1.504454300468556E-003
  2.638340602899420E-006
 -1.862070573311152E-003
  2.475579470965852E-006
  3.236838517255870E-003
  2.511485360728528E-006
  3.580177708397497E-005
  1.889060891176631E-009
 -7.616998348029780E-007
 -1.738329770059131E-008
  4.417491557335414E-008
 -3.913302977227269E-008
 -1.945032720490001E-008
 -1.813803544512661E-003
  7.369241067755709E-009
  1.708079634883998E-006
  7.847497583418716E-003
  2.334409719076547E-004
  4.341672884384385E-008
 -7.573638411136633E-009
  2.180546938604412E-003
  6.295933639435962E-007
 -7.110149135053934E-004
  1.912271100860377E-006
 -1.219877250312852E-006
 -4.144985179842269E-004
  1.035534017364325E-006
  2.495553354169301E-008
 -1.277101175418595E-002
 -6.582980472426816E-003
 -5.516725901008597E-007
 -2.743204408948181E-008
 -1.395517397224382E-007
  7.148044331063519E-003
  4.205702188366791E-008
  2.878984323895656E-003
  8.351695263603334E-007
 -2.035996826970537E-008
  6.278877161665536E-009
 -3.850267325114479E-002
  4.883261533700938E-007
  9.579741261241849E-009
  2.625978172931371E-008
 -5.052679452439539E-007
  2.019958186854317E-002
 -1.658198660573180E-003
  1.469070623533656E-008
  6.326896246279845E-007
 -3.891517381586274E-003
  4.397553765161532E-003
  2.290603679030310E-006
  7.621235785621196E-007
 -4.854760692534121E-004
  2.784075521190239E-003
  5.324190190592472E-007
 -2.112818584671584E-006
  4.659344617011152E-003
  1.263040001316196E-006
 -4.301424670060341E-004
  2.717772523145788E-006
  3.531889649818809E-004
  1.887627655124328E-003
  6.267324217149100E-007
  0.103062501767973     
  1.962933742406263E-005
  9.436035949306131E-006
   1.16723222576830     
 -0.161425905481421     
  1.451247554246334E-006
  1.381735460057607E-005
  5.844544923049463E-003
 -2.741176425954856E-002
 -1.868145327818756E-005
 -6.802484920544853E-003
  7.887262668522618E-006
 -4.513592508789197E-003
 -2.426537223542810E-006
  5.616403374393665E-003
 -2.690368080736341E-006
 -1.772753499258831E-002
 -7.717549216686326E-006
  1.325899871280761E-002
  8.702733676210880E-006
 -8.071557313703709E-003
  1.907750943645758E-005
 -2.683403668613671E-003
  7.367067757869600E-006
 -4.470317172747223E-003
 -1.849122568402402E-007
 -4.465769001130639E-003
  3.269368855877365E-006
 -4.935503509762216E-003
  5.262363669119782E-006
 -4.207017618183759E-002
  4.820653582062845E-006
 -1.445026511415163E-002
  2.647542107582022E-005
 -2.292018731798012E-002
 -1.270920741837957E-006
 -6.896161571962475E-004
 -2.685246713879660E-006
  9.442248817133327E-003
 -2.974718796173232E-007
 -9.207200376822097E-003
  1.948871642644694E-006
  1.050718228110859E-002
 -1.188469103111291E-006
 -2.205820782782406E-008
 -2.246905657002145E-008
 -3.821862244830038E-008
  9.688559230154530E-008
  3.330475734398308E-006
 -3.757371104743859E-002
 -1.723017408561198E-007
  1.276977441304683E-002
 -1.230170752412835E-006
  1.567804927862890E-006
  5.565490927633249E-008
 -1.486071851751161E-002
 -3.731848338628410E-003
 -1.850041105544073E-007
 -5.552658915551468E-008
 -1.050163813446982E-006
  1.341927436672508E-002
  2.529217982112499E-003
  2.004837650277745E-007
 -2.155617003436834E-006
  1.826238967844232E-003
  2.953770518629692E-008
 -7.154017056633151E-003
 -1.140917038101518E-006
 -5.594004610232874E-008
  5.125303575571684E-008
  3.511760508409498E-002
  5.311294313860847E-007
  2.235317269758966E-002
 -6.518504338935950E-007
 -1.922149167468491E-007
 -4.187858830838287E-008
  4.495907311248024E-002
  4.010089446670009E-002
  1.788917229175828E-006
 -2.389259105884022E-002
  7.171920553726369E-007
 -3.741104066070533E-002
  1.133799789037548E-006
  1.966422439524814E-008
  4.694288721252845E-007
 -0.221688978978193     
 -4.102417136818157E-008
 -1.642158483120785E-006
 -0.101642478297219     
  8.985105029895979E-007
  9.102143695345720E-009
  4.182869087179747E-002
  9.095281045400572E-007
  2.570166133201658E-003
  6.945200909729512E-007
  1.202190089828711E-006
  8.390087387573308E-002
  0.119885359248788     
  3.012331023130992E-006
 -4.233874813343651E-002
 -1.082133616095247E-006
 -1.867906337495800E-008
 -3.568125416379540E-002
 -6.507875600056318E-002
 -1.495539551723801E-006
  1.576574787767029E-006
 -2.609365145029957E-002
  5.827837190100835E-009
 -3.547448362742280E-007
 -8.487157533791659E-005
 -3.417505075440063E-002
  7.884847281948962E-006
  3.198427238202558E-002
 -5.454392421392827E-002
 -2.900505178199840E-006
 -3.083658571209674E-006
 -4.301888939088539E-002
  1.909743090085877E-008
  2.625304625595541E-008
  1.083676533372853E-007
 -5.913101021730907E-005
 -7.309787683274041E-003
  1.670226519091909E-009
 -2.322048162883639E-003
 -9.458053204780860E-007
  1.265026147874974E-006
 -9.541888436457669E-004
 -6.360758947687421E-004
 -7.863459959211492E-008
  1.134611624261836E-002
  1.020860711939495E-006
  1.815587712109546E-006
  5.571121183241119E-003
  2.140881195792867E-007
  2.145155070314334E-002
 -2.749296560541788E-007
 -2.500163884668514E-003
  9.021988522833013E-007
  5.658015521830045E-002
 -8.777208138302730E-007
 -1.794746335473279E-002
 -3.131839957525263E-007
  5.443987558304991E-003
  5.002933166663648E-008
 -1.344450816671630E-008
  4.004758333956305E-008
 -8.311879527795593E-009
 -1.862237845525602E-008
 -5.666954640048831E-007
  6.109989516968014E-004
  1.577906119028614E-006
  1.623306735867830E-003
 -1.174829985302973E-006
  8.397797362798679E-004
  4.229926534607117E-006
 -2.114989028034375E-005
  3.199171283984704E-006
 -4.938253977787753E-004
 -1.462676781933144E-006
  7.459107523204892E-004
  1.186262739727467E-009
 -1.428435948615080E-006
  8.427789847894875E-004
 -1.175387611456072E-006
  3.927454914287494E-003
  1.701983199303456E-006
  7.909890384629587E-004
  4.223765685907686E-007
 -5.170914574330608E-008
  4.744684949021030E-005
 -8.559289071461741E-009
 -3.444681621068973E-008
 -3.127728912308939E-008
  1.350266104845825E-008
 -1.926072768551942E-007
 -1.488320881528978E-008
  1.391113638262104E-003
 -1.470196059967570E-007
 -3.550158564534504E-007
  5.106105401593328E-004
  8.751668588562284E-009
 -1.194557190586388E-006
 -4.286402153020987E-003
  2.246395778095420E-007
 -1.094670844371804E-002
  1.261107955437396E-002
 -1.871325176453467E-007
 -2.684675730616596E-003
  6.115254345610120E-009
  8.244630435183143E-007
  5.604467629453671E-008
  4.753608377906815E-003
  3.526793202219363E-008
  2.180009603530871E-004
 -4.085297322492094E-007
 -1.875453337208955E-008
 -8.324649087101785E-007
  3.352858587547457E-002
  7.103657096250773E-009
 -9.607379613202501E-009
 -2.801752726405964E-007
 -2.320290911850304E-002
  7.162740441611730E-008
 -1.506500468229916E-009
  1.555169534983955E-002
  1.863856295586717E-007
 -1.328281547009877E-006
 -1.447578347645973E-002
 -1.204622326582885E-002
 -9.145513869864059E-008
 -4.487151830641202E-007
 -4.075842716223748E-003
 -2.890926195140718E-003
  1.138567200347944E-007
 -2.251179656697501E-006
  5.569806006014668E-004
  1.193476062814355E-003
 -1.704825784807504E-006
  5.981162035308239E-004
 -1.038770157207596E-007
  3.948722241045582E-004
  1.315473196905098E-006
 -9.258644015483348E-007
 -1.024316608772881E-003
 -1.063339589327192E-002
  2.264648249360495E-005
  1.600308313103440E-005
 -0.161425905481412     
   1.17452926636135     
  2.139205906155794E-006
 -8.442702116407909E-006
 -0.163558177593796     
 -2.087778698320282E-003
  1.432006056055567E-005
 -8.508434988517234E-002
 -4.587179707575702E-006
 -4.545125450192769E-002
  5.018045874805358E-007
 -2.731789208689559E-002
  3.310536950448789E-006
  1.164009449870393E-002
  9.215217738159040E-006
  4.862898558149147E-004
 -3.133214575097923E-006
 -8.433237926772858E-003
  2.434718496344103E-005
  2.208678779130556E-002
  3.851609262626707E-006
 -9.574054407444568E-003
  3.911504207210556E-007
 -6.493895690697237E-003
 -6.769798559628812E-006
 -7.922615010488920E-003
 -1.014923650440773E-005
 -2.804707729294011E-002
  2.049706866958769E-006
  1.107471546384839E-002
 -4.254298630959340E-006
 -6.126393237591160E-004
 -4.049269968977059E-006
  1.745613913790370E-003
  1.333988925640975E-007
 -3.422778927676830E-002
 -3.248625819824602E-006
  2.381497553263989E-002
 -3.313791523572986E-006
 -3.995424259370949E-002
  1.140755048091806E-006
  7.511806871263212E-009
  1.477392007533282E-008
 -8.448497173882308E-008
  4.886139185970809E-008
  1.589224602172063E-006
  2.291753420502454E-002
 -2.442858231886602E-008
 -5.603441633912488E-003
 -2.632048693421331E-006
  2.669673352882637E-006
 -5.508746169280977E-008
  1.158211376139083E-002
 -1.045849630473382E-003
 -1.448412951242752E-006
 -7.676139103623470E-008
 -1.072616199445418E-006
 -1.965892459029421E-002
 -1.189584289524015E-002
 -1.764747527107430E-006
 -2.056116758379380E-006
  1.458907927974440E-003
 -1.443015908870438E-007
  3.791940251811837E-002
 -1.765615151298297E-006
  4.507323559541338E-008
  5.321565433072820E-008
 -3.053243049328996E-002
  2.577732030607917E-006
  4.101321502898961E-003
  5.945018138468992E-007
 -1.239745954273664E-006
 -6.792843827638010E-008
 -9.434410220448235E-003
 -2.330012525694789E-002
 -1.823620152812412E-006
  2.962177954288044E-003
  1.468637178159199E-006
  2.358748619877774E-002
 -9.451371351965785E-007
 -5.732849854604239E-008
 -5.081716134067191E-008
 -0.236248410432425     
 -5.488171711394957E-008
  3.696633887531630E-007
  1.278896424034205E-002
  6.397655249066433E-007
  1.111570480310346E-007
 -7.007567962830066E-002
 -2.478629365164523E-006
 -4.074621385555408E-002
  2.695183252853230E-007
  1.838991707996945E-006
 -4.737661698372640E-002
 -0.134585861424969     
 -2.358847455374392E-006
 -4.241961128369161E-002
 -2.258670036898132E-007
 -6.699651073638647E-008
  2.678712845180391E-002
 -1.871719799471953E-002
  1.620946328127776E-006
  2.006585606179289E-006
  2.239847669441445E-002
 -1.976351614891855E-008
  1.355666829173504E-006
 -4.568326787474943E-003
 -1.249569929367766E-002
 -2.626179464755048E-005
 -8.186311896963445E-002
  7.303330822468826E-002
  7.906830187742260E-006
 -2.662663896692055E-007
 -1.913224833701163E-002
 -8.747006302711840E-009
  7.369618967137831E-008
  4.680090447537999E-009
  1.908476317539823E-004
  2.373818660874701E-002
 -4.505015536938692E-008
 -2.673454867997016E-003
 -1.430177550828776E-006
 -6.820148535976754E-007
  6.976881932645251E-003
  9.761240580425847E-003
 -7.632492140367771E-007
 -5.742849890325719E-003
 -6.320710595718757E-009
  7.607411399337942E-007
  6.879606552889946E-003
 -4.277212395589869E-007
  2.047312724077658E-002
  1.056263826854313E-007
  1.932449238031122E-002
  2.700659521010839E-008
 -3.748250179321974E-002
 -2.181068208864376E-007
  6.047663063890479E-002
 -3.423297619992873E-007
 -7.669899948355036E-003
 -2.045926943873681E-008
  2.141596237990062E-008
  2.569765124760578E-008
  3.457175390251885E-008
  6.718779052347865E-009
 -7.848118952348663E-007
  3.382807319542951E-004
  3.408899718140931E-007
 -8.316512569788161E-004
 -2.062881940671257E-006
 -5.109268255419012E-004
  4.610110489566288E-006
 -3.070982161589884E-004
  3.191255456462659E-007
 -6.618694044674766E-004
 -4.603118135215101E-007
  5.496501665405613E-004
 -3.360528272851694E-009
  3.847498195057746E-006
 -1.000376439132625E-003
  1.580190558234626E-006
 -1.741152074177250E-003
  7.575737886731569E-007
 -3.381022131869019E-003
  2.295425204675373E-006
  1.246946652883552E-008
  2.869246255791027E-005
  9.902830237651377E-009
  1.606926420381083E-008
 -2.617078142807810E-008
 -7.443390298231875E-009
 -5.519285842877753E-007
 -3.674105268286179E-008
  7.226012227524637E-003
 -3.841692684611981E-007
 -7.725390448038134E-007
 -1.535695853572905E-003
  8.114524013548088E-009
  1.596167615511335E-007
  3.913756250724554E-003
  1.236617374486856E-007
  9.021557650114918E-003
 -1.195494974449189E-002
 -2.188843493284418E-007
  5.228046537534957E-003
  3.827746132112164E-008
 -3.161804615049294E-008
 -5.621975029917922E-007
 -7.187895121026491E-003
  5.468176354389062E-009
 -5.473745499314214E-003
 -1.527438649909670E-007
  1.403310938798189E-008
  1.227783305861607E-006
  3.352443304112201E-002
  8.607154650829074E-009
 -5.782999353760704E-008
 -1.033454866623604E-006
 -5.982900277722272E-003
 -1.617287470151815E-008
 -2.444596257632638E-008
 -7.106644605175197E-003
 -1.705023893411001E-006
 -9.461149111055443E-007
 -2.507371366314576E-002
 -3.574428595464136E-003
 -1.783245505554327E-006
 -4.732824716470930E-007
  2.264419964201036E-003
  4.525803767413557E-003
 -4.127703241371724E-007
 -3.164104931101750E-007
 -3.847160160519004E-005
  7.636279007700937E-003
 -2.992603040181164E-006
 -2.693919755386636E-003
 -2.378474402272722E-007
 -2.301785113820850E-003
  8.701050601497210E-007
 -1.448979630212951E-006
  8.472243917235689E-004
 -3.126754191958172E-005
  8.608604958599967E-003
 -0.144665843160987     
  1.451247545563443E-006
  2.139205921306803E-006
   1.07380201720664     
  0.174162070557985     
 -1.270701492147659E-005
 -8.093062821390461E-006
  5.697356335348180E-003
 -1.205643966352333E-006
 -1.949700107820721E-002
 -1.012550533872994E-005
 -1.459321832163779E-002
  7.524120059860517E-006
 -3.302069936688075E-005
 -2.223838780102240E-006
  2.333267690282505E-002
 -7.134220081359276E-006
  1.373515374534883E-002
 -1.729762489519644E-005
  3.142428173805035E-003
  5.854671052518004E-006
 -8.878393979084586E-003
  1.393826631434664E-006
 -2.715990709662010E-003
  1.448230131352104E-006
 -9.653157170163994E-004
  6.230471795941663E-006
  2.527247532120576E-002
  3.041765572442865E-006
  8.675994297021202E-003
  2.943039335955028E-007
  3.015419551134346E-002
  4.698576554845028E-005
  2.896831832271130E-004
  5.754624985426777E-006
  1.937947766907612E-002
 -3.535979862063799E-006
 -1.036404884740496E-002
 -5.782483116494392E-006
  1.268163988232910E-002
 -2.294399365031689E-006
  2.911015103964198E-002
  1.053398832568856E-007
  8.302262533931021E-009
  3.449911298835238E-008
 -1.100212433168559E-007
  2.753855784752888E-003
  2.377118674858955E-006
  1.142729039502996E-007
  1.754511879531806E-006
 -1.235979774685278E-002
 -9.182624535155549E-003
  1.424988428545315E-010
 -9.445634810677294E-007
  2.355773371655742E-006
 -1.130331257996633E-002
  6.667939048738627E-008
  9.233075298337395E-003
  1.004225866193541E-006
 -2.851078285452605E-006
 -8.828283374892070E-003
 -3.228177900715262E-002
 -3.290437231848327E-007
 -1.079593502704041E-008
 -9.073916285250720E-007
 -1.417405780308166E-002
  6.082789056542484E-008
 -1.204581516536172E-007
  3.900748515584424E-006
  5.340173515183195E-002
  1.792361042124354E-007
  2.681507142586199E-002
 -2.558905019705124E-002
 -7.852068128562050E-008
  4.747060336305994E-007
 -4.324880415238786E-008
 -4.468298432617437E-002
  1.518453302323255E-006