   1.25394575022964     
 -2.141930970264988E-005
 -3.416853956271061E-005
  0.103056617243135     
 -1.063722770116242E-002
 -3.724267673824451E-005
  3.518635915456998E-005
 -3.690182543838473E-002
 -2.716223733934364E-003
 -1.086246603210050E-005
 -2.613154320074587E-002
  7.021581284310389E-006
 -2.735174038055903E-002
  1.494379962191532E-005
  5.174885322475264E-003
 -1.312128091862442E-005
 -1.672096698658916E-003
 -1.411763249438824E-006
  1.685735434558036E-003
  1.890956758892833E-005
 -3.950211422697742E-003
 -1.096125578097277E-005
  4.048158351927247E-003
 -1.306027374825043E-005
 -1.026479766129830E-002
  5.109997885906074E-006
  9.249842061144908E-004
 -2.584239436669288E-006
 -3.078883618465064E-003
 -8.548012360277884E-006
  1.620486779517889E-002
  1.521702384354439E-006
  5.104200441906645E-002
  4.525169369903479E-006
 -6.235165227906154E-003
  2.501628968702345E-006
  6.917771282076809E-004
 -7.445730691855797E-006
 -4.503235912978859E-003
 -3.466298492739809E-006
  7.131736567010751E-003
 -6.680944303377562E-006
 -1.029150700493412E-002
  1.637997360508469E-006
  2.578182302400480E-007
  9.884697182964434E-008
  1.825344127634576E-007
 -5.805108505410926E-008
  4.578021276244238E-006
 -3.099275110358497E-002
  4.040503628918401E-008
  8.759955788914198E-003
 -1.328942969583447E-006
 -1.296827467183815E-006
  1.857296069209129E-008
 -8.371769287575171E-003
 -5.108224963804187E-002
  9.024321704092025E-007
  5.526706660039194E-008
 -1.730136496416300E-006
 -1.466451168824885E-002
 -5.347443087967022E-004
  1.180221625232893E-006
  1.586309304856197E-006
 -1.012268958258520E-004
  7.380659183314208E-008
  9.058408646139956E-003
 -2.857634194919693E-006
 -1.227376649330773E-008
  2.116285333042251E-007
 -3.613356817028871E-003
  1.443651063398212E-006
 -1.039083092393170E-002
  4.121956687584338E-007
 -2.628271046214140E-006
  6.421506911340254E-008
  1.430129945579969E-003
 -6.027697376554133E-003
  6.091230010923500E-007
  1.178988246048802E-003
 -1.722373436100250E-006
  5.470093333387730E-003
 -1.375082780527686E-006
  1.385919766509352E-007
 -5.413781748191290E-007
  1.879282269223985E-002
  1.244913319237774E-007
  3.318024336664324E-006
  0.137369829263247     
 -1.672363629990369E-006
 -2.747126138025672E-008
 -0.171838578693092     
 -3.645814362778661E-006
 -8.227521203334486E-002
  2.081363675114535E-006
  4.552297457281677E-006
  8.020460620499989E-002
  2.746439885889235E-002
 -3.354825660826379E-007
  0.122182616825399     
 -2.916906204868758E-006
  5.266053711536896E-008
 -5.236768767300032E-002
 -6.764396325081935E-002
 -1.036487151328254E-006
  6.453698475019392E-008
 -9.878886183617738E-004
  3.716174785135678E-008
  1.353131328632465E-006
 -1.897674292200667E-003
  8.609518842448162E-003
 -1.879320054665129E-006
 -6.929667191465855E-003
 -2.495101487517146E-002
 -4.748245475248977E-006
 -4.842158614599211E-006
 -6.111269340117658E-002
  1.403061018668704E-008
 -3.794857831755109E-008
  1.945696505429973E-008
  1.357903038716720E-004
  1.689645893533350E-002
  1.168454058545365E-007
  1.537764537333982E-003
  7.223666192097031E-007
 -1.234432150182418E-006
  1.020165583486934E-002
  5.617070400130115E-003
 -5.260768780050545E-007
  1.178144111850649E-003
  3.686262459550524E-007
  4.613675839790265E-007
  6.343672338374529E-004
 -4.762391401150741E-007
 -7.299046017091780E-003
 -5.518563322718611E-007
  5.322363716343029E-002
 -9.151493372155178E-007
  3.343807134599774E-002
  7.805584061635932E-007
  6.241820069885774E-003
  3.573709332797700E-007
 -1.449353046923954E-003
  6.720948212715345E-011
  1.801704580885404E-008
  5.691490856211572E-008
  3.196001582789711E-008
 -3.635529535410451E-008
 -9.932225699676848E-007
  1.566195275819123E-004
  1.411880376999993E-006
  3.208675831522139E-004
 -3.358037256870950E-006
 -6.547699989174140E-004
  2.000543476776153E-006
  4.324566174923833E-004
 -3.753794256003586E-007
 -1.817917431303002E-004
 -2.226286596341138E-006
 -1.074515930617601E-004
 -2.731546747901232E-008
 -1.636930809399554E-006
 -3.586857745710140E-003
  4.236782054997271E-006
  3.149726863787148E-003
 -1.502354228065049E-006
 -3.937130315157357E-005
  9.818887082437337E-007
  1.655549123517523E-008
 -5.858871980410113E-005
  2.865636400715960E-009
  1.802836749337246E-008
 -2.243170177146020E-009
 -3.563519606583576E-009
 -1.564394659732443E-006
  1.780429317511877E-008
  1.979551685390862E-003
  1.776960431130950E-007
  5.914153632152895E-007
 -3.056161836546060E-005
  2.809681828513270E-009
 -7.160649515043064E-007
 -1.595512634978294E-003
 -7.411968586037981E-007
 -4.564822400540415E-003
  3.662434133422621E-003
  2.263922711696711E-007
  1.709338810481651E-004
 -1.565344668320127E-008
 -2.550883762970547E-006
 -1.836627882198831E-006
  4.453811508683464E-004
 -1.338122387346387E-008
 -7.991484993778429E-003
 -2.538178380665269E-007
 -1.988146380534118E-008
 -2.877335345108874E-006
 -3.892587304201935E-003
 -3.979621126184521E-009
  3.322369457937146E-008
  6.582458913566438E-007
  1.529232358822923E-002
  2.894369871043752E-009
  4.175223460950238E-008
 -3.610493280110722E-002
  1.366882796422968E-006
 -4.239867217722347E-007
  4.786577693852871E-003
 -1.374102247879335E-002
 -1.341103753853821E-006
 -7.905083291963986E-007
  1.133785142040317E-003
  4.104973783031177E-004
 -7.817016047118275E-007
  5.184120171708792E-007
  2.261294068436797E-005
  1.487629630690015E-003
 -2.205245610301527E-006
 -2.056409780619647E-003
  2.217637103152710E-006
 -1.469034378272625E-003
 -1.541156919312526E-007
 -6.915935502560892E-007
 -1.014215730516504E-003
 -2.141930971064436E-005
   1.24301392764978     
 -0.110545613842233     
  2.587228954292490E-005
  2.630704298487389E-005
  8.608307791795753E-003
 -2.604405573718101E-002
  1.437564829394638E-005
 -8.320475368562546E-006
 -6.564287982397378E-003
  8.878488010507749E-006
  7.968784122222882E-003
 -1.755149235076051E-005
 -1.179082015232269E-002
  1.634688905654107E-005
  9.610834211848891E-003
 -9.678234921166595E-006
 -8.246839609674639E-003
 -1.217436969176512E-006
 -5.019482088064273E-003
  1.177886947836896E-005
 -1.671473380032952E-003
 -4.277689897942929E-006
 -4.309201014834432E-003
 -8.545463596655646E-006
  4.807542348684865E-003
  2.855326301017148E-006
  2.994328097503882E-003
 -4.343010996631973E-006
  2.931683553388508E-003
  2.612749663290257E-006
  4.309854703981994E-002
  6.574728047324710E-006
 -1.776101821187074E-002
 -2.846225668568770E-005
  2.552431078326614E-002
  4.262635826994566E-006
  4.184834764272118E-003
 -6.574911280200399E-006
  3.613300735100958E-003
 -4.405109716022814E-006
 -6.286916816496841E-003
 -6.478951331767900E-006
  6.885600227817767E-003
  3.908317534874828E-007
 -9.835961397639484E-008
  1.696659186553934E-007
 -6.999540313887002E-008
 -8.396963256690634E-005
  2.764751437695745E-006
  6.705991606919589E-008
 -3.304450677642402E-006
 -3.443160011859142E-003
 -4.985977574295599E-002
 -1.399381793227524E-007
  1.944250363829267E-007
  5.233843209266055E-007
  1.943979281833874E-002
  6.205896972885735E-008
 -2.791914842655073E-002
 -2.087939713352296E-007
  1.467780438663720E-006
 -2.743553463957881E-003
 -9.869146619635883E-004
 -4.533138238815806E-007
  6.294855643031429E-008
  1.421369150405325E-006
  2.365767273706886E-003
 -8.927216480719771E-008
  1.195721386688890E-007
 -2.132702647404478E-006
 -1.726647122367292E-002
 -1.308904087971638E-006
 -2.442353190908154E-002
  1.242794989075219E-002
 -3.684760929988902E-008
  1.513879756510008E-006
 -2.608044631961445E-008
  1.400986548818362E-002
 -4.727257722693710E-007
  1.373282889459081E-002
 -2.655684596083014E-007
 -1.344117480237034E-002
  6.154157358772700E-008
  3.877943987432448E-002
  8.426911069171359E-007
 -8.278701625970919E-008
 -0.152594192851464     
  3.988810834724544E-006
  0.104621827003235     
 -6.332727417042005E-008
 -5.491723351566719E-006
 -4.330347229195915E-002
  6.116043370519373E-007
 -0.114211474126743     
 -0.112772560865707     
  4.786376949395862E-007
  3.104156909058077E-006
 -6.019391150696516E-002
  2.196869635138770E-006
  0.137450010445223     
 -1.432309114229152E-008
  2.204276618472357E-006
 -3.104343599491775E-006
  2.445693292627188E-002
  3.797746674485874E-003
  1.094195015161206E-006
  4.604098797553747E-008
  3.559522035741933E-003
 -4.415915669878323E-007
  1.071782091084688E-006
  4.032793238843925E-003
 -2.028232683488252E-006
 -3.355283392207231E-006
  3.427912236717291E-002
  5.301949945232642E-002
 -4.560037700973474E-006
  1.518964960128790E-008
  1.375605562299575E-009
  3.005694689964075E-008
  9.051722577086729E-003
 -7.220607247737597E-005
  1.969154844717546E-008
 -1.362852119471069E-006
 -2.422359741656042E-003
  3.090221388930145E-003
  9.659587962205875E-007
 -4.461575551939019E-007
  9.388264338887717E-003
 -1.088435410386680E-006
  3.948434174392853E-004
 -3.114110895531432E-003
 -3.389341845290991E-009
  1.059716214035654E-003
  1.015292804112828E-006
 -2.888191403752788E-002
  9.552978960943311E-007
  5.273330065454038E-002
  1.747748093565038E-006
 -9.986631719348677E-003
 -2.108841953909125E-006
  5.081245232756210E-003
 -2.770852595851652E-006
 -1.955024687080590E-008
 -4.723699687490288E-008
  2.971563649239474E-008
  2.261767492549511E-008
 -3.655118670819696E-008
  1.586652884874532E-004
 -1.890305540610040E-006
 -4.833771705573848E-004
  3.953289092066994E-007
 -1.118892400271377E-003
  1.538887815623276E-006
 -1.751828928839070E-004
  3.437244206574820E-006
  3.695976610938859E-004
  4.456396272214731E-007
  2.239693021505436E-004
 -1.240066838644069E-006
  2.784229246220058E-009
 -1.624052134798545E-003
 -3.267100275241298E-006
  4.464435986165513E-003
  2.368195242516780E-006
 -8.365262339683158E-004
  8.261472511405980E-007
 -3.011571571278101E-005
  1.947652833631224E-008
  3.803830584214372E-007
 -2.584811590547742E-008
 -3.905443139734389E-010
 -6.375810771122278E-008
 -5.844230591660209E-009
 -2.599484112661338E-004
  3.203412693662340E-008
 -4.531469741702283E-008
  1.423180801127307E-003
 -6.511139063729756E-006
  6.795101320722453E-007
  7.546000615267448E-009
  1.692794952774452E-004
 -3.563090254965642E-007
  9.030566034805500E-006
  2.326831582642437E-007
 -1.693180662148073E-007
 -8.642474997677072E-004
  4.402623926049178E-007
 -9.591703810036843E-009
  1.202355482687384E-002
  4.872348920286229E-003
  4.957496948629014E-008
 -8.741794912623374E-009
  1.292536979678795E-006
 -4.150260318076268E-003
  2.492681603027556E-008
 -5.878855219336167E-003
  1.886542647576253E-007
 -9.793791937815690E-009
 -5.678770124792088E-008
 -2.882228493401257E-002
  2.464094037609628E-006
 -9.547354555551561E-009
 -3.985350294395485E-008
  2.501672742329392E-007
  2.240237315607136E-003
  2.968516221882272E-002
  9.795965738973957E-007
  1.884054572275398E-006
  5.021133662551203E-003
 -1.331953122832321E-003
 -4.973835134245441E-007
 -1.383124047232130E-006
 -7.876387867503219E-005
 -1.139429403224455E-003
 -5.921708065546401E-007
 -1.129277427094628E-006
  8.847394232383080E-004
  1.138505317754496E-007
 -2.229117612596138E-004
  1.074782742789500E-006
 -9.432615725057772E-004
 -1.191220819991209E-003
  6.528630303238074E-007
 -3.416853958699659E-005
 -0.110545613842234     
   1.21057744980154     
  1.298381132228087E-005
  1.402610273543928E-005
 -0.144664011285715     
 -2.988247413692217E-002
 -1.501983736032327E-005
  7.194297793896560E-006
  6.302089278613861E-002
  8.162553078746099E-006
  4.886270393468983E-002
 -1.206230466330347E-005
  2.729162899031208E-002
 -4.642323776658382E-006
 -7.140136112369439E-003
  1.126180829632908E-005
 -1.840617219113313E-003
 -5.400474503556604E-006
 -4.650378595201259E-003
  9.912728344401327E-006
 -7.852418009615924E-003
 -4.962582973701046E-006
  1.623393872416342E-002
  2.462311226751613E-006
  5.542025965585798E-003
  2.465199780651857E-006
  3.509086188017275E-003
  1.258436750939345E-005
  1.747227066678114E-002
 -7.218836014888819E-006
  4.331157007411014E-002
 -8.040244958122054E-007
 -3.157001658470953E-003
 -9.946323771172239E-006
 -1.234405360254690E-002
 -1.764494953875700E-006
 -1.840743474427152E-002
 -7.819912155395986E-006
 -9.541142018395671E-003
 -3.875480195919361E-006
  1.844597302060712E-002
  6.245232084392628E-006
 -3.746503681075906E-002
 -8.364718652626391E-008
  2.125250729002492E-008
  8.353562691823519E-009
  1.003310562824049E-007
 -1.144674722506658E-003
 -2.512451241186303E-006
  5.862418940684432E-008
 -4.079443165229048E-006
  5.706096279168674E-003
  2.932734375143157E-002
 -4.621174101206454E-008
  5.059625278069336E-007
 -1.771501891071412E-006
 -9.950509653337178E-003
  6.531474706485109E-008
 -1.339785795641798E-002
  4.762446235619864E-007
  3.935694466657678E-007
  9.334924800611379E-003
 -1.324105422073185E-002
  1.999178996505660E-007
 -1.142004151750757E-008
  2.711116838769967E-006
 -1.861148768013752E-002
 -1.357357471843039E-007
 -7.597721033786970E-008
 -3.790780371276510E-007
  1.540087469637699E-002
 -2.627344826397529E-006
  1.232594084688613E-003
 -3.155057522823131E-003
 -4.362022689978790E-008
 -1.211530975148671E-006
  2.917192642726306E-007
  1.108091285414745E-003
  2.576516458655379E-007
 -5.868908419045817E-003
 -6.850156813166723E-007
  7.770456981126201E-003
 -6.906743439722346E-008
 -2.946148538000697E-002
  5.008482576810042E-007
 -9.934045445633513E-008
 -0.237222068492715     
  2.736556465452014E-007
  7.111849251767909E-002
 -5.678632356632931E-008
 -9.568564866702057E-007
  1.587976720621295E-002
 -3.020131699850454E-006
  9.549742764724670E-002
  2.035111546873939E-002
 -3.106529976890359E-007
 -3.541801896040648E-006
  0.103189665505190     
  5.565682798439455E-007
 -1.402709458532072E-002
 -1.200384317992846E-009
  3.974849622249890E-007
  4.462260011789635E-008
 -6.382201292069253E-002
  1.356788824336772E-002
 -1.667694156243639E-006
  3.111487309959416E-008
  1.342866476386185E-002
 -7.108884796113410E-007
  1.132204888402160E-006
  3.888774642193445E-002
 -1.661549366345756E-005
 -3.521623691307268E-006
  2.928695727140789E-002
 -7.853016313471645E-002
  3.659102238850195E-007
 -3.358363622990949E-009
 -2.530530718095525E-009
  7.078194113598381E-008
 -2.476551370407106E-002
  1.993931779547616E-004
  3.799947354263021E-008
  1.180871350126330E-006
 -4.430955647881371E-003
  5.315965056593847E-003
  9.927248653391047E-007
 -1.782447572019942E-007
 -1.226182899655931E-002
 -3.531332956647552E-007
 -3.050175036824143E-003
 -6.217735135564556E-003
 -4.293866555320735E-007
  2.388140233150845E-003
  1.263431395182681E-006
 -2.904840251441916E-002
  8.844160779316553E-007
 -4.217023805942535E-002
  6.313376747869918E-007
  4.942177618284027E-002
 -2.548137613638119E-008
 -8.260032607806425E-003
  1.513550369550912E-007
  1.131287156794000E-008
  4.938363568751909E-008
  4.392336144239092E-008
  1.340061043456199E-008
  5.950031398988156E-010
  1.322756504695454E-004
 -2.041383942260741E-006
 -4.176587136486002E-004
  1.129905283054131E-006
  5.842887560661041E-004
  4.788478302786643E-006
 -3.594338207728304E-004
  1.963593980403293E-006
  6.109924278096767E-004
  2.179016925143759E-006
  2.765946592053473E-004
 -3.346091671936143E-007
 -8.296970352293158E-009
 -1.504522084368948E-003
  2.663697390546362E-006
 -1.862082769738461E-003
  2.612319390390894E-006
  3.236847299038045E-003
  2.641073980528571E-006
  3.582648280025527E-005
 -2.406414815661828E-008
 -7.289182139842188E-007
  1.367765833973116E-008
 -3.809554053969118E-009
 -1.131004564404970E-008
  5.088086013162746E-010
 -1.813887002555941E-003
  2.252046097099557E-009
  1.745916219491581E-006
  7.847518616946119E-003
  2.333626685068748E-004
  7.650548151003202E-008
  4.903961189907623E-009
  2.180535297041047E-003
  5.949885120232665E-007
 -7.110729861947999E-004
  1.897290756919985E-006
 -1.197572638135208E-006
 -4.144833952622845E-004
  1.020465680983069E-006
  1.241904788273346E-008
 -1.277102117454662E-002
 -6.583055909430366E-003
 -4.933642409052445E-007
 -2.822538997340812E-009
 -2.030597734370994E-007
  7.148020148008236E-003
 -1.564504413430205E-008
  2.879057172760958E-003
  7.790875601126170E-007
  1.138234517540705E-008
  2.005168884482175E-010
 -3.850272536144788E-002
  4.087377929799720E-007
  8.469179674098163E-009
  1.051686658464333E-008
 -5.512550640048055E-007
  2.019950985089430E-002
 -1.658186260334857E-003
 -4.662674904785322E-008
  6.569126306505340E-007
 -3.891540266188885E-003
  4.397554548853683E-003
  2.355068584615705E-006
  7.469313547565438E-007
 -4.854007717037894E-004
  2.784013893992973E-003
  4.505310626118451E-007
 -2.125070422764692E-006
  4.659396114895424E-003
  1.324322766201534E-006
 -4.301326651845974E-004
  2.687885952511824E-006
  3.531590270936683E-004
  1.887611797278561E-003
  8.119217318015464E-007
  0.103056617243146     
  2.587228953855784E-005
  1.298381132440167E-005
   1.16723442550570     
 -0.161428217044927     
 -1.125949854365048E-006
  1.346225886156795E-005
  5.844825197779609E-003
 -2.741039037556009E-002
 -2.118249798119677E-005
 -6.801125838836153E-003
  8.692865744799605E-006
 -4.514100479570646E-003
 -2.610860863512076E-006
  5.615886339530710E-003
 -2.338760808210220E-006
 -1.772758704932257E-002
 -6.266451732982169E-006
  1.325865066829293E-002
  9.042220872388730E-006
 -8.071565373964171E-003
  1.850913144784340E-005
 -2.684447443219532E-003
  7.821930344447282E-006
 -4.470841513804700E-003
  3.454090578050144E-007
 -4.465541956350955E-003
  5.007527507285203E-006
 -4.935352800611900E-003
  4.646804546888952E-006
 -4.207039086056103E-002
  4.769789260525942E-006
 -1.445075447422068E-002
  2.613384293626660E-005
 -2.292015902818798E-002
 -1.159533152888597E-006
 -6.898295605654033E-004
 -2.758086088713045E-006
  9.442227631156538E-003
 -1.534735302122455E-007
 -9.207177890638862E-003
  1.921458019745333E-006
  1.050668504742808E-002
 -6.875580621107754E-007
  8.026483014821002E-008
 -1.358483347945086E-007
 -1.242867420387273E-007
  9.426994742028236E-008
  2.897043670133558E-006
 -3.757342362127230E-002
 -6.932830483551862E-008
  1.276973061606770E-002
 -1.402291744955143E-006
  1.407740211287538E-006
 -1.578859732719647E-009
 -1.486074148387764E-002
 -3.731998626680540E-003
 -5.283913225158574E-007
  1.856860145777416E-007
 -9.027932734168792E-007
  1.341920587343777E-002
  2.528973003229673E-003
  9.152448644080632E-008
 -2.167736256307689E-006
  1.826406785693707E-003
 -2.426848354269499E-008
 -7.153831017297852E-003
 -9.360694070977502E-007
 -7.308334909144399E-008
  1.200517525259901E-007
  3.511738866072809E-002
  1.143805327240026E-007
  2.235320209386809E-002
 -2.249672675836746E-007
 -3.087199011897190E-007
 -3.794392118394035E-008
  4.495906590910206E-002
  4.010097813373836E-002
  1.782025564871938E-006
 -2.389248227515790E-002
  9.105179220758263E-007
 -3.741102584379850E-002
  1.191262195285505E-006
  6.580511698293667E-008
  5.198075995241216E-007
 -0.221688714711906     
 -5.302824744390873E-009
 -1.669407360767877E-006
 -0.101642261587566     
  8.804852477610829E-007
  3.587222404259694E-008
  4.182862757488936E-002
  8.054469293092051E-007
  2.570289268620648E-003
  7.168520819927256E-007
  1.171869439171439E-006
  8.390111321317252E-002
  0.119885216805094     
  2.379476864825740E-006
 -4.233869720081202E-002
 -8.836773240983506E-007
 -2.795811101157084E-008
 -3.568126873076681E-002
 -6.507873448037020E-002
 -1.270966520071826E-006
  1.721468585998460E-006
 -2.609367513145498E-002
 -1.233062666819011E-008
 -2.229405417699285E-007
 -8.480764361103025E-005
 -3.417500129509457E-002
  7.687870114114033E-006
  3.198424263304975E-002
 -5.454409013370044E-002
 -2.866103934638862E-006
 -2.954679046547836E-006
 -4.301899883788711E-002
 -5.532614760616526E-008
  8.382977678838846E-009
  1.319519291832003E-008
 -5.912333068182515E-005
 -7.309708506581467E-003
  2.725478970720872E-008
 -2.321996975221942E-003
 -1.322311292327410E-006
  1.137910299900256E-006
 -9.542761044997806E-004
 -6.359829392156875E-004
 -7.217152206288691E-008
  1.134614160736301E-002
  9.651331734864633E-007
  1.652875165879828E-006
  5.571173112506669E-003
  1.269427226654701E-008
  2.145148212373573E-002
 -2.546694135148430E-007
 -2.500175641635899E-003
  7.972234003252232E-007
  5.658013734578009E-002
 -8.340387934537664E-007
 -1.794744372317659E-002
 -2.899651478267398E-007
  5.443975252235501E-003
 -4.546827811499750E-008
  1.286768727228366E-008
 -2.023608481603211E-008
 -1.392555736084594E-008
  2.548192302935612E-008
 -7.102351985423304E-007
  6.107682501665374E-004
  1.744113905960323E-006
  1.623502224378236E-003
 -1.481829391679941E-006
  8.396832585050728E-004
  4.442258444867178E-006
 -2.116350766629422E-005
  2.729777101325301E-006
 -4.938115731056845E-004
 -1.378810048865088E-006
  7.458447512269098E-004
 -1.357858667301892E-008
 -1.745862650957147E-006
  8.426688691188139E-004
 -1.048824165570176E-006
  3.927566243284909E-003
  1.654952513722466E-006
  7.908807682939896E-004
  4.391928249030411E-007
  2.399588047537775E-008
  4.745318641265447E-005
 -2.667876245767375E-008
  3.191927510459642E-008
 -1.063909743606064E-008
 -2.683387372975074E-008
 -2.211920710210365E-007
  1.147541777571598E-009
  1.391166660520992E-003
 -1.520894987595227E-007
 -4.016339343559808E-007
  5.105199036805313E-004
  2.854233194809844E-008
 -1.146068077115084E-006
 -4.286390272696182E-003
  2.607624448462496E-007
 -1.094674317023901E-002
  1.261105108615874E-002
 -2.201716688175936E-007
 -2.684657534723978E-003
  1.336717169564967E-008
  8.930111430351761E-007
  1.333873766565829E-007
  4.753624283729552E-003
  3.493906158039420E-008
  2.179857424765604E-004
 -4.080037009404951E-007
 -1.929005669876153E-008
 -7.759661995644235E-007
  3.352858468654044E-002
 -2.779221940464242E-008
  3.370824404471145E-009
 -2.829998952324030E-007
 -2.320294688572379E-002
  1.825939012752936E-008
 -6.018650096280040E-009
  1.555168421093568E-002
  1.481785877899812E-007
 -1.280617445741886E-006
 -1.447576545948354E-002
 -1.204622246892173E-002
 -1.068799960792277E-007
 -5.732229298274870E-007
 -4.075886960514550E-003
 -2.890905834484042E-003
  1.578749159301154E-007
 -2.326377210372195E-006
  5.569486683653993E-004
  1.193472554205511E-003
 -1.689980994197947E-006
  5.981329551061710E-004
 -2.862048730150412E-008
  3.948113375111618E-004
  1.287464567123901E-006
 -9.733987648664389E-007
 -1.024321937161986E-003
 -1.063722770115295E-002
  2.630704298937502E-005
  1.402610274461571E-005
 -0.161428217044929     
   1.17453226541670     
  3.185781606863521E-006
 -1.204409531504529E-005
 -0.163556377717849     
 -2.089313442848976E-003
  1.581672307035392E-005
 -8.508492544755451E-002
 -4.902329184180202E-006
 -4.544969466790078E-002
  1.166169401157702E-006
 -2.731899015467592E-002
  3.583874306128759E-006
  1.164032315377443E-002
  9.875626829878631E-006
  4.864989526418572E-004
 -3.266579635415129E-006
 -8.433407729912178E-003
  2.479522325511710E-005
  2.208703618437553E-002
  4.553559290080292E-006
 -9.573691839501996E-003
  6.250812525040749E-008
 -6.494261352456777E-003
 -7.327608267755792E-006
 -7.923466387604357E-003
 -9.967337337388715E-006
 -2.804694058359688E-002
  2.105195665595828E-006
  1.107449167372696E-002
 -4.160272490470538E-006
 -6.126834252630408E-004
 -3.853227095813139E-006
  1.745660533589445E-003
  4.820321955912187E-008
 -3.422790567394313E-002
 -3.332049892556655E-006
  2.381495181587847E-002
 -3.294009461604094E-006
 -3.995453594244631E-002
  1.189222198768462E-006
 -2.341584262934004E-007
 -2.470907045326194E-008
 -3.147525413342791E-008
 -1.998434708455276E-008
  1.430113276372760E-006
  2.291776330813429E-002
 -1.429083225305124E-007
 -5.603556519059452E-003
 -2.768482444691926E-006
  2.588517680592025E-006
 -5.650211149869282E-008
  1.158195920898872E-002
 -1.046053176396734E-003
 -1.302327663378580E-006
 -3.354765023098467E-008
 -1.163620919724631E-006
 -1.965884345089422E-002
 -1.189583002663786E-002
 -1.539755441747656E-006
 -2.014648938161968E-006
  1.458826377283529E-003
 -1.260857444302923E-007
  3.791935790784019E-002
 -1.704396403841884E-006
  7.068517230820652E-008
 -9.019553604224728E-009
 -3.053263390603317E-002
  2.756300270300665E-006
  4.101421392716827E-003
  3.854428579630371E-007
 -1.145581317917521E-006
 -4.270951113971638E-008
 -9.434297962697616E-003
 -2.330028275538030E-002
 -1.781057197646807E-006
  2.962217004841164E-003
  1.408078959682557E-006
  2.358745401114392E-002
 -9.208110860936525E-007
 -5.295278648176912E-008
 -9.512335654901378E-008
 -0.236248397261136     
  1.654797419162297E-008
  2.453616191663660E-007
  1.278903038383499E-002
  6.075216137664329E-007
  9.675995505965519E-008
 -7.007577515040367E-002
 -2.549881582613972E-006
 -4.074620633219286E-002
  2.129619368278551E-007
  1.783127023255921E-006
 -4.737667862513525E-002
 -0.134585849815757     
 -2.425088215415911E-006
 -4.241956233514862E-002
 -3.304553462323286E-007
 -6.076810686141443E-008
  2.678719013498850E-002
 -1.871718545227317E-002
  1.548428994458311E-006
  1.874377526144983E-006
  2.239849259791980E-002
 -3.269890855467346E-008
  1.413905349590681E-006
 -4.568412398646703E-003
 -1.249557656799800E-002
 -2.612315374054328E-005
 -8.186308539216465E-002
  7.303330494250272E-002
  7.778623866975818E-006
 -4.032089285791956E-007
 -1.913241948873685E-002
 -2.647804225419861E-008
  9.951582888767778E-008
  2.692634513031161E-008
  1.908566702394668E-004
  2.373822053366107E-002
 -3.439298750268798E-008
 -2.673366735565363E-003
 -1.270757097444596E-006
 -8.267059283883986E-007
  6.976879734716685E-003
  9.761280014144107E-003
 -8.779505119772307E-007
 -5.742868525974805E-003
 -3.421959439991803E-008
  8.212815019836136E-007
  6.879640499899131E-003
 -4.668821131628628E-007
  2.047316771045839E-002
  1.538943592889081E-008
  1.932446016009636E-002
  4.867195716171214E-008
 -3.748251987927430E-002
 -2.349162406166990E-007
  6.047667488428959E-002
 -4.040301239937514E-007
 -7.669863968561778E-003
  4.003688170289750E-008
  3.047644835423805E-008
  8.940259874173116E-009
  9.793076445381052E-009
  3.166905997092851E-008
 -7.241901002803101E-007
  3.382829474472768E-004
  2.542149701058623E-007
 -8.316433112692575E-004
 -1.980468350197405E-006
 -5.109337566854840E-004
  4.649783247224774E-006
 -3.071631035419913E-004
  1.499177927376900E-007
 -6.619668057473375E-004
 -3.247135151278110E-007
  5.496540295061686E-004
  2.246183067841566E-009
  3.999145377852315E-006
 -1.000416720528100E-003
  1.612024736161657E-006
 -1.741245663564004E-003
  7.807434054232712E-007
 -3.381107132812277E-003
  2.353295077512163E-006
 -3.132000442088800E-008
  2.858055378765053E-005
  1.095698842177985E-008
  1.268461809174149E-008
  5.057132606205374E-009
  7.764847021467289E-009
 -5.255313056516526E-007
 -1.835297289618149E-008
  7.226013834037798E-003
 -3.230593555959072E-007
 -7.743524847068074E-007
 -1.535713609787697E-003
  7.591648151370106E-009
  9.113223369093577E-008
  3.913720600051570E-003
  8.438792186423808E-008
  9.021582260738565E-003
 -1.195490388193099E-002
 -2.380937120862596E-007
  5.228054539507827E-003
  2.260074990469475E-008
 -4.311119563273635E-008
 -5.320950036436104E-007
 -7.187908044736574E-003
 -1.476341320002092E-008
 -5.473826636059384E-003
 -1.474329911206783E-007
  2.495297872672792E-008
  1.237699786925732E-006
  3.352444325442436E-002
 -4.181475414783114E-009
 -2.528489168697033E-008
 -1.034730491145155E-006
 -5.982945291597394E-003
  7.535498570777619E-009
 -2.490574839896491E-008
 -7.106655765517569E-003
 -1.724726640354897E-006
 -9.891862254536208E-007
 -2.507373027767602E-002
 -3.574402450437213E-003
 -1.775138477374891E-006
 -4.718256818331893E-007
  2.264430348752770E-003
  4.525821895899592E-003
 -4.031419986421127E-007
 -2.981910065085670E-007
 -3.847144109920180E-005
  7.636257403315948E-003
 -3.009261440115477E-006
 -2.693926675518253E-003
 -2.359070251698729E-007
 -2.301788987670307E-003
  9.001054509878917E-007
 -1.457935825093161E-006
  8.472295836040613E-004
 -3.724267673999268E-005
  8.608307791800744E-003
 -0.144664011285718     
 -1.125949875598508E-006
  3.185781606193235E-006
   1.07380283492226     
  0.174163723243337     
 -1.359581201287049E-005
 -8.180772316871266E-006
  5.698995880922981E-003
 -5.322916077189816E-007
 -1.949776644805137E-002
 -1.066896742521053E-005
 -1.459269781021427E-002
  7.948093068533514E-006
 -3.343980615513002E-005
 -2.846230438416378E-006
  2.333299038268442E-002
 -6.816864218821361E-006
  1.373475250977525E-002
 -1.818881289985556E-005
  3.142179208967348E-003
  4.093975022518892E-006
 -8.877806323398570E-003
  8.045707832534288E-007
 -2.716392464462217E-003
  1.395001224192891E-006
 -9.644858624298265E-004
  5.788872374689146E-006
  2.527210943676207E-002
  2.811522166328506E-006
  8.676039300147060E-003
 -4.471780924258963E-008
  3.015418225441674E-002
  4.738324201151105E-005
  2.896038975797713E-004
  5.339516728362004E-006
  1.937980067130222E-002
 -3.401170620780235E-006
 -1.036448103275030E-002
 -5.541252600829399E-006
  1.268107981229749E-002
 -2.436064030482022E-006
  2.910990200956512E-002
  1.775225672087908E-007
  8.587114619703712E-008
  1.881754700672077E-007
 -3.595363743157039E-008
  2.753591152278320E-003
  2.362967231208429E-006
  1.281130539667573E-007
  1.857947072338602E-006
 -1.236017948217651E-002
 -9.182472936381336E-003
  1.249915012107286E-007
 -9.246408067896602E-007
  2.580097351700662E-006
 -1.130308143381588E-002
  6.321593806027354E-008
  9.233291822208689E-003
  1.174283217812687E-006
 -2.257566796141413E-006
 -8.828314144129457E-003
 -3.228189592431030E-002
 -5.127914400064174E-007
 -3.487507119521554E-008
 -9.254116694130676E-007
 -1.417388785800137E-002
  6.379275380627094E-008
 -2.471524751531356E-008
  3.813692942778681E-006
  5.340162874012359E-002
  1.465867105462611E-007
  2.681490681360007E-002
 -2.558886800331756E-002
 -9.234798128681963E-009
  2.450525893279263E-007
 -2.168560914480196E-007
 -4.468308435163079E-002
  1.442043471683240E-006